# vtk DataFile Version 3.0
off file: spx.off
ASCII
DATASET UNSTRUCTURED_GRID

POINTS 2896 float
    -0.94204497     -1.67744994     -3.26706004
    -1.17192996     -0.98662001     -3.29263997
    -0.56799501     -1.91210997     -3.72985005
    -0.71677500     -1.39048004     -3.72985005
    -0.75750500     -2.22721004     -3.34067988
    -1.04914999     -2.10929990     -2.93918991
    -1.21691000     -1.39859998     -2.99743009
    -1.18373001     -1.73210001     -2.88635993
    -0.46590501     -1.60518003     -3.40386009
    -0.61162502     -1.94638002     -3.04132009
    -0.74990499     -1.41808999     -2.92834997
    -0.79696500     -1.69246995     -2.75662994
    -0.88002503     -1.13120997     -3.14802003
    -0.58237499     -3.42521000      4.64419985
    -0.62429500     -3.28096008      4.69750023
    -0.63833499     -3.47328997      4.69750023
    -0.24937500     -2.53591990      4.69750023
     1.58766997     -3.47328997      4.69750023
     1.95340002     -3.42521000      4.64499998
     2.00967002     -3.47328997      4.69750023
     1.99563003     -3.28096008      4.69750023
     1.87321997     -2.88789010      4.69750023
     1.95097005     -3.08341002      4.69750023
     1.71431005     -3.08726001      4.69750023
     1.56773996     -3.28476000      4.69750023
     1.50366998     -3.09322000      4.69750023
     1.79867005     -3.47328997      4.69750023
    -0.34295499     -3.08722997      4.69750023
    -0.57962501     -3.08341002      4.69750023
    -0.13234501     -3.09322000      4.69750023
    -0.02224500     -2.91429996      4.69750023
    -0.24960500     -2.89361000      4.69750023
    -0.50188500     -2.88789010      4.69750023
    -0.39093500     -2.70264006      4.69750023
    -0.56866503     -3.04994011      4.55205011
    -0.61893499     -3.24839997      4.41897011
    -0.63953501     -3.47328997      4.48428011
    -0.35612500     -3.17053008      4.41346979
    -0.37826499     -3.24519992      4.57536983
    -0.39782500     -3.28048992      4.69750023
    -0.19641501     -3.28476000      4.69750023
    -0.42733499     -3.47328997      4.69750023
    -0.21633500     -3.47328997      4.69750023
    -0.56109500     -3.02782011      4.32473993
    -0.32397500     -2.61698008      4.50756979
     1.47949004     -2.67730999      4.69750023
     1.62108004     -2.89376998      4.69750023
     1.76225996     -2.70264006      4.69750023
     1.39357996     -2.91429996      4.69750023
     1.24294996     -2.76403999      4.69750023
     1.26203001     -2.53559995      4.69750023
    -0.91055501     -0.87571001     -3.72985005
    -1.41366005     -1.08921003     -2.88826990
    -1.12358999     -0.42214000     -3.72985005
    -1.00838006     -0.91720998     -2.95188999
    -0.78255498     -0.82139999     -3.38198996
    -1.41866004     -0.37615001     -3.36236000
    -1.51889002     -0.66257000     -3.01943994
    -0.82434499     -0.56428999     -3.31646991
    -1.15930998     -0.59078997     -2.79222989
    -0.10727500     -2.67635989      4.69750023
     0.12837499     -2.76403999      4.69750023
    -0.18695500     -2.47755003      4.53462982
    -0.08245500     -2.39488006      4.69750023
     0.11532500     -2.52911997      4.69750023
     0.10258500     -2.28459001      4.69750023
     0.29752499     -2.20745993      4.69750023
    -0.14816500     -3.18606997      4.50249004
     1.76917005     -3.28048992      4.69750023
     1.57587004     -3.47328997      4.48113012
     2.00967002     -3.47328997      4.48750019
     1.96291006     -3.12514997      4.50820017
     1.57597005     -2.80328989      4.50941992
     1.85492003     -2.85223007      4.52318001
     1.68481004     -3.03274012      4.48421001
     1.51942003     -3.18614006      4.50252008
     1.42008996     -2.98427010      4.51154995
     0.09801500     -2.80925989      4.54903984
     0.30712500     -2.65457010      4.69750023
     0.49799499     -2.59102988      4.69750023
     0.87333500     -2.59102988      4.69750023
     0.68566501     -2.57129002      4.69750023
     0.87708497     -2.16319990      4.69750023
     0.68566501     -2.14929008      4.69750023
     1.07380998     -2.20745993      4.69750023
     1.78260005     -3.47328997      4.38196993
    -0.16910499     -2.75886989      4.51167011
    -0.29661500     -3.00763988      4.52154016
    -0.04875500     -2.98427010      4.51154995
    -0.46670499     -2.82151008      4.47609997
    -0.37840500     -2.68550992      4.32942009
    -0.47500500     -2.83652997      4.22398996
    -0.46337500     -2.43688011     -3.72985005
    -0.50804502     -2.18588996     -4.21365976
    -0.63345498     -1.66283000     -4.21356010
    -0.23178500     -1.85169995     -4.02031994
    -0.24583501     -2.00585008     -3.54896998
    -0.61711502     -3.23786998      4.18583012
    -0.64074498     -3.47328997      4.26948023
    -0.64196497     -3.47328997      4.05150986
    -0.35297501     -3.09137011      4.23995018
    -0.39665499     -3.33791995      4.31701994
    -0.41348499     -3.47328997      4.38883018
    -0.15110500     -3.27838993      4.33690023
    -0.20452499     -3.47328997      4.48113012
     1.26874006     -2.28459001      4.69750023
     1.45378995     -2.39488006      4.69750023
     1.62071002     -2.53591990      4.69750023
     1.54234004     -3.47328997      4.25427008
    -0.55968499     -3.02405000      4.09158993
    -0.61653501     -3.23452997      3.95881009
    -0.22839500     -2.51558995      4.31037998
    -0.36370501     -2.66610003      4.12911987
     1.41937006     -2.57171988      4.54100990
     1.39698005     -2.78000998      4.52009010
    -0.62920499     -0.75634998     -3.84968996
    -0.79096502     -1.17809999     -4.21299982
    -0.34332499     -1.28847003     -3.78246999
    -0.49939501     -1.03374004     -3.49236012
     1.67969000     -2.59878993      4.47650003
     1.27330995     -2.80925989      4.54903984
     1.26959002     -2.62907004      4.56833982
     1.21273005     -2.39524007      4.55389977
     1.06421995     -2.65457010      4.69750023
     0.93801498     -2.17377996      4.55835009
     1.06294000     -2.43822002      4.69750023
    -0.00561500     -2.49122000      4.33620024
     0.04125500     -2.59487009      4.48123980
    -0.01798500     -2.35212994      4.46027994
     0.21826500     -2.23466992      4.51207018
     0.27762499     -2.44300008      4.44271994
     0.41020501     -2.17833996      4.55379009
     0.34360501     -2.40025997      4.69750023
     0.83556497     -2.35605001      4.69750023
     0.59045500     -2.37185001      4.69750023
     0.49424499     -2.16319990      4.69750023
    -0.07386500     -3.08443999      4.31872988
     1.52241004     -3.27841997      4.33690977
    -0.65302497     -2.64762998     -3.39477992
    -0.91199499     -2.58870006     -3.01189995
    -0.60037500     -2.36174989     -2.91762996
    -0.22005500     -2.31261992     -3.28090000
     1.77550006     -3.24534988      4.35042000
     1.98204005     -3.20500994      4.33673000
     2.00967002     -3.47328997      4.25474024
     1.90330005     -2.95316005      4.30786991
     1.76979005     -2.71339011      4.27827978
     1.59343004     -2.86228991      4.30651999
     1.44518995     -3.08445001      4.31873989
    -0.00479500     -2.65104008      4.22290993
     0.05892500     -2.89121008      4.32921982
     1.31241000     -2.89121008      4.32921982
     0.24590500     -2.72838998      4.38908005
     0.48772499     -2.61548996      4.48071003
     0.88371497     -2.61538005      4.48066998
     0.68566501     -2.58456993      4.48303986
     1.46981001     -3.23434997      4.14844990
     0.68384498     -2.14926004      4.48810005
     1.11737001     -2.22182989      4.50358009
    -1.21030998     -2.47285008     -2.58606005
    -1.33074999     -1.96609998     -2.57083011
    -0.74502498     -2.30117011     -2.70637989
    -0.95398498     -2.23247004     -2.30394006
    -0.80630499     -1.95355999     -2.54719996
    -0.53763503     -1.99665999     -2.71655989
     0.90430498     -2.16754007      4.40553999
     1.08779001      2.36590004      3.97250009
     1.12272000      1.32456005      3.97250009
     0.89775503      1.68781996      3.97250009
     1.35030997      1.98240995      3.97250009
     1.58811998      1.59841001      3.97250009
     2.95866990     -3.00458002      3.97250009
     1.72291994     -3.32473993      4.07762003
     1.75940001     -3.47328997      4.11668015
     2.00967002     -3.47328997      3.98207998
     2.42967010     -3.47328997      3.97250009
    -0.19741499     -2.84037995      4.20558023
    -0.47367501     -2.83413005      3.99308991
    -0.64321500     -3.47328997      3.82883000
    -0.28668499     -3.03749990      4.07390022
    -0.31802499     -3.21045995      3.91431999
    -0.39776501     -3.47328997      4.14630985
    -0.41254500     -3.47328997      3.91114998
    -0.09848500     -3.23433995      4.14844990
    -0.17099500     -3.47328997      4.25427008
     1.99029005     -3.24850988      3.92445993
     1.40965998     -2.36517000      4.44614983
     1.59094000     -2.50725007      4.21731997
     1.70034003     -2.62291002      4.07019997
     1.47820997     -3.47328997      4.00262022
    -1.24302006     -1.01677001     -2.55370998
    -1.40093994     -1.51338005     -2.67143011
    -0.92453498     -1.29672003     -2.47076011
    -1.07616997     -1.54609001     -2.69411993
    -0.64450502     -3.47328997      3.59994006
    -0.55865502     -3.02126002      3.86324000
    -0.61589497     -3.23082995      3.73200011
     0.16778500     -2.25497007      4.28957987
     0.40676501     -2.17913008      4.37381983
    -0.04091500     -2.36683011      4.18035984
    -0.47460499     -2.83579993      3.76414990
    -0.36130500     -2.66293001      3.88657999
    -0.21611500     -2.50395012      4.03135014
     1.35690999     -2.64121008      4.34379005
     1.12544000     -2.72836995      4.38907003
     1.10952997     -2.49299002      4.37444019
[...]
POINT_DATA 2896
SCALARS scalars float 1
LOOKUP_TABLE default
     0.04449900 
     0.03773600 
     0.03428300 
     0.03535300 
     0.03914400 
     0.05739500 
     0.05146600 
     0.06111100 
     0.03682500 
     0.04359100 
     0.04725600 
     0.05393400 
     0.04071900 
     1.51580000 
     0.00000000 
     0.00000000 
     0.00000000 
     0.00000000 
     0.81889200 
     0.00000000 
     0.00000000 
     0.00000000 
     0.00000000 
     1.48099995 
     0.00000000 
     0.00000000 
     1.78100002 
     1.80100000 
     0.00000000 
     0.00000000 
     0.00000000 
     2.02200007 
     0.00000000 
     0.00000000 
     1.62655997 
     1.76113999 
     0.00000000 
     1.87800002 
     2.11669993 
     1.74000001 
     0.00000000 
     2.25399995 
     0.00000000 
     1.58304000 
     1.48785996 
     1.66299999 
     1.76900005 
     0.00000000 
     0.00000000 
     0.00000000 
     1.72099996 
     0.03088900 
     0.05305300 
     0.02585700 
     0.04063100 
     0.03196000 
     0.02755600 
     0.04147900 
     0.02986500 
     0.03887300 
     1.92600000 
     0.00000000 
     1.50663996 
     0.00000000 
     1.94700003 
     0.00000000 
     0.00000000 
     1.78393996 
     1.94500005 
     0.00000000 
     0.00000000 
     0.68094897 
     1.63053000 
     0.74008602 
     1.58560002 
     1.57660997 
     1.60810006 
     1.67402995 
     0.00000000 
     0.00000000 
     0.00000000 
     0.00000000 
     0.00000000 
     0.00000000 
     0.00000000 
     1.71729004 
     1.88229001 
     1.97552001 
     1.74144006 
     1.59044003 
     1.53938997 
     1.49712002 
     0.02763400 
     0.02677200 
     0.03099000 
     0.03050100 
     0.03273800 
     1.60100996 
     0.00000000 
     0.00000000 
     1.70790005 
     1.81543005 
     1.96291995 
     1.82193995 
     0.00000000 
     0.00000000 
     0.00000000 
     0.00000000 
     0.00000000 
     1.45208001 
     1.42522001 
     1.51301003 
     1.43150997 
     1.59712005 
     1.69893003 
     0.02794600 
     0.03062500 
     0.03144600 
     0.03316100 
     1.00460994 
     1.49324000 
     1.79384005 
     1.51455998 
     0.00000000 
     1.38170004 
     1.95799994 
     1.61992002 
     1.86063004 
     1.51547003 
     1.49033999 
     1.80620003 
     1.46299005 
     2.01900005 
     1.91199994 
     1.93499994 
     0.00000000 
     1.80171001 
     1.62267005 
     0.03004900 
     0.04462500 
     0.04184200 
     0.03303200 
     1.61599004 
     0.72272700 
     0.00000000 
     0.59931803 
     0.81131601 
     1.48959994 
     1.75490999 
     1.61541998 
     1.69322002 
     1.73820996 
     1.67077994 
     1.66067004 
     1.66031003 
     1.70772004 
     1.75556004 
     1.44333005 
     1.22317004 
     0.07303300 
     0.09514400 
     0.05606300 
     0.09010000 
     0.06530000 
     0.05260300 
     1.38002002 
     0.05654100 
     0.09715800 
     0.07941800 
     0.07388400 
     0.09316000 
     0.09027100 
     1.56168997 
     1.54902005 
     0.00000000 
     0.00000000 
     1.61756003 
     1.34902000 
     0.00000000 
     1.58369994 
     1.50890005 
     1.73005998 
     1.50790000 
     1.73684001 
     0.00000000 
     1.51075006 
     1.01802003 
     1.21289003 
     0.77704197 
     0.00000000 
     0.05914500 
     0.07481100 
     0.06035600 
     0.06161600 
     0.00000000 
     1.29101002 
     1.36301005 
     1.44823003 
     1.44210994 
     1.40364003 
     1.20401001 
     1.28469002 
     1.35399997 
     1.57237005 
     1.67455995 
     1.60231996 
     1.72400999 
     1.67200994 
     1.58424997 
     1.75551999 
     1.47059000 
     1.64227998 
     0.07874700 
     1.50352001 
     1.69737005 
     1.42490005 
     0.19437601 
     1.38583004 
     0.20657600 
     1.68506002 
     1.49294996 
     0.03912900 
     0.03476600 
     0.03930800 
     0.03513800 
     0.03548500 
     0.04083200 
     1.57565999 
     1.68489003 
     1.62153006 
     1.62893999 
     1.68078995 
     1.33337998 
     1.29793000 
     1.17045999 
     0.05858000 
     0.03579700 
     0.01651600 
     0.00000000 
     0.02589500 
     0.00000000 
     0.01901600 
     0.02979500 
     0.01646500 
     0.00000000 
     0.04032000 
     0.07408500 
     0.05743000 
     0.04426100 
     0.07101100 
     0.06373400 
     0.11865500 
     0.10906100 
     0.11528500 
     0.10979800 
     0.12703100 
     0.04339700 
     0.05206000 
     0.13603500 
     0.13261101 
     0.14726700 
     0.09086700 
     0.09144600 
     0.13625599 
     0.11150400 
     0.08283100 
     0.09234300 
     0.10368300 
     0.08084900 
     0.09795000 
     0.13514601 
     0.04063100 
     0.05425000 
     0.04414200 
     0.12970901 
     0.15612200 
     0.46849099 
     0.42927000 
     0.20295900 
     0.19125000 
     0.14753900 
     0.00000000 
     0.08352000 
     0.14411099 
     0.15016800 
     0.15554100 
     0.16313501 
     0.17998400 
     0.19160099 
     0.17015401 
     0.19825900 
     0.21379800 
     0.18566599 
     0.17173301 
     0.18408500 
     0.17835499 
     0.03340600 
     0.16440800 
     0.16769999 
     0.18254399 
     1.43579996 
     1.69120002 
     0.02601700 
     0.00000000 
     0.17743000 
     0.27891800 
     1.38287997 
     1.29403996 
     1.44105005 
     0.07760700 
     0.05604700 
     0.06528800 
     1.36054003 
     1.36047995 
     1.22644997 
     1.57217002 
     0.00000000 
     1.33578002 
     0.00000000 
     0.00000000 
     0.40861699 
     0.33276400 
     0.57107502 
     0.88797498 
     0.90834200 
     0.01965600 
     0.02175900 
     0.02091400 
     0.02294700 
     0.01831000 
     0.01980300 
     0.69918901 
     0.41664401 
     1.29580998 
     0.19315600 
     0.00000000 
     1.23650002 
     1.20931005 
     1.14618003 
     1.09906995 
     1.04807997 
     1.54150999 
     1.32745004 
     1.31124997 
     1.13899004 
     1.28225005 
     1.18435001 
     1.17343998 
     1.61300004 
     1.57631004 
     0.99082798 
     0.89281797 
     1.55148995 
     1.51595998 
     1.30783999 
     0.04546100 
     0.03016500 
     0.03698000 
     1.39320004 
     1.54730999 
     1.38608003 
     1.57718003 
     1.36149001 
     1.44984996 
     1.53333998 
     1.57632005 
     0.94863498 
     1.22148001 
     0.64657599 
     0.05108800 
     0.08964200 
     0.06470700 
     0.04560600 
     0.02889900 
     0.02387700 
     0.03105000 
     0.02898900 
     0.04033400 
     0.00000000 
     0.03156900 
     0.03192000 
     0.02324100 
     0.01658000 
     0.02729400 
     0.02893700 
     0.02319400 
     0.02348000 
     0.02810600 
     0.00000000 
     0.04595300 
     0.05462400 
     0.05025600 
     0.07401600 
     0.06419300 
     0.07170600 
     0.15017501 
     0.12546501 
     0.12686899 
     0.11518100 
     0.11321600 
     0.13888100 
     0.14123300 
     0.14653800 
     0.15622599 
     0.17384300 
     0.10144100 
     0.10336800 
     0.11395600 
     0.11031700 
     0.16029400 
     0.14500000 
     0.16833299 
     0.04302700 
     0.17497499 
     0.14436200 
     0.12273700 
     0.08728100 
     0.10740100 
     0.08955000 
     0.02428600 
     0.08126300 
     0.10475700 
     0.12731200 
     0.21755700 
     0.25521100 
     0.28748900 
     0.21305899 
     0.22868200 
     0.00000000 
     0.03334800 
     0.05245700 
     0.03757400 
     0.05356600 
     0.04000300 
     0.02969000 
     0.15250100 
     0.16825099 
     0.14693899 
     0.15696600 
     0.16950600 
     0.18452799 
     0.19650100 
     0.24926500 
     0.17634900 
     0.19149600 
     0.20876600 
     0.18082500 
     0.17760000 
     0.16418700 
     0.17190801 
     0.16383100 
     0.17871401 
     0.54599398 
     0.56316900 
     0.62861699 
     0.89820200 
     0.21791700 
     0.22253700 
     0.00000000 
     0.30873400 
     1.21136999 
     1.36593997 
     1.18142998 
     1.29804003 
     0.01934300 
     0.01849400 
     0.02368800 
     0.02280700 
     0.00000000 
     1.13545001 
     1.23265004 
     1.06303000 
     1.14151001 
     0.95766902 
     0.00000000 
     1.00501001 
     0.31169099 
     0.46407899 
     0.60117400 
     0.47632399 
     1.37690997 
     1.08551002 
     0.20933700 
     0.22608800 
     0.19619800 
     0.02272600 
     0.03048400 
     0.02680600 
     0.02142300 
     0.01733600 
     0.42933601 
     0.53555202 
     0.00000000 
     0.00000000 
     1.09840000 
     1.09291005 
     0.97239000 
     0.92524600 
     1.20155001 
     1.06733000 
     1.05825996 
     1.06996000 
     1.02293003 
     1.17958999 
     1.40309000 
     1.36172998 
     0.96962202 
     0.67801797 
     1.35716999 
     1.24431002 
     0.03502800 
     0.02884600 
     0.02996000 
     1.18868995 
     1.34061003 
     0.81156898 
     0.80587900 
     0.40239900 
     1.19386995 
     0.05277600 
     0.08021300 
     0.09060300 
     0.09984700 
     0.10892400 
     0.04777700 
     0.06813500 
     0.05717000 
     0.02781600 
     0.03248600 
     0.06958900 
     0.04169400 
     0.00000000 
     0.04076900 
     0.04238100 
     0.04946400 
     0.05559100 
     0.03775900 
     0.00000000 
     0.03994700 
     0.03132900 
     0.03432600 
     0.02654600 
     0.06152900 
     0.06521400 
     0.06260600 
     0.06755900 
     0.07739700 
     0.07959000 
     0.09178900 
     0.07922300 
     0.10984700 
     0.10672000 
     0.09651800 
     0.02597600 
     0.02580100 
     0.02898700 
     0.03006200 
     0.09056500 
     0.15931100 
     0.15407400 
     0.13192099 
     0.11587000 
     0.11933700 
     0.14230500 
     0.14957500 
     0.15883400 
     0.14899801 
     0.18400900 
     0.20058100 
     0.15087201 
     0.12144200 
     0.14517200 
     0.17897201 
     0.23168901 
     0.20386700 
     0.11998700 
     0.10700100 
     0.03155200 
     0.15718500 
     0.13353200 
     0.11881400 
     0.18313199 
     0.13583700 
     0.11682200 
     0.09908900 
     0.03098600 
     0.11310500 
     0.12778300 
     0.13702200 
     0.22973201 
     0.27016300 
     0.32758200 
     0.29372901 
     0.21869899 
     0.17900001 
     0.00000000 
     0.02452400 
     0.03866300 
     0.03412400 
     0.18191800 
     0.18445900 
     0.21240699 
     0.18069801 
     0.15685600 
     0.14534700 
     0.17984501 
     0.17087799 
     0.18106000 
     0.19091600 
     0.20715000 
     0.24172600 
     0.18480000 
     0.18104900 
     0.04430300 
     0.06757500 
     0.03673800 
     0.16973101 
     0.17116700 
     0.16407900 
     0.15372001 
     0.17125700 
     0.22815999 
     0.29771799 
     0.26417500 
     0.35998601 
     0.43518901 
     0.42665499 
     0.26912799 
     0.22672300 
     0.26570699 
     0.05233200 
     0.24127200 
     0.89855802 
     1.06603003 
     0.00000000 
     0.85711199 
     0.82843000 
     0.03994100 
     0.03560500 
     0.03038200 
     0.00000000 
     0.93744999 
     1.03487003 
     0.92380297 
     1.00873995 
     0.00000000 
     0.53041703 
     0.64352000 
     0.43840599 
     0.41414601 
     0.38175401 
     0.97300798 
     0.24244700 
     0.34503600 
     0.24046101 
     0.31340101 
     0.15013300 
     0.07644400 
     0.08895900 
     0.25360301 
     0.31942800 
     0.39257899 
     0.00000000 
     0.24263699 
     0.45123401 
     0.63935298 
     0.98200297 
     0.96400398 
     0.93423301 
     0.76298702 
     0.88765299 
     0.89337701 
     0.12312100 
     0.12417800 
     0.10781200 
     1.04335999 
     1.30341995 
     0.88199300 
     1.10457003 
     0.90233803 
     0.38109201 
     1.09644997 
     0.89392000 
     0.00000000 
     0.05217400 
     0.00000000 
     0.11684600 
     0.04477700 
     0.05548900 
     0.07583900 
     0.05662400 
     0.10193100 
     0.06985000 
     0.08571600 
     0.11404800 
     0.08032100 
     0.09613300 
     0.10777300 
     0.08421100 
     0.13961899 
     0.10389500 
     0.06886500 
     0.07536400 
     0.15332100 
     0.18228300 
     0.11126700 
     0.08398200 
     0.06807600 
     0.06622900 
     0.06534100 
     0.06068300 
     0.06393000 
     0.04296100 
     0.00000000 
     0.06494200 
     0.05209400 
     0.06111100 
     0.05339000 
     0.08981200 
     0.00000000 
     0.08259400 
     0.07522100 
     0.08552900 
     0.09176900 
     0.08689900 
     0.10476400 
     0.09657000 
     0.06410700 
     0.12139200 
     0.11005100 
     0.11439200 
     0.12067300 
     0.10485300 
     0.16543300 
     0.16304100 
     0.13391100 
     0.06469600 
     0.10946900 
     0.09593500 
     0.06298300 
     0.14841101 
     0.15926699 
     0.19842499 
     0.20692900 
     0.20640600 
     0.24510600 
     0.18208501 
     0.25226301 
     0.23292901 
     0.14266600 
     0.12179400 
     0.13769799 
     0.17836200 
     0.14238900 
     0.18578400 
     0.18991999 
     0.13507301 
     0.11788800 
     0.12890300 
     0.13815100 
     0.22861300 
     0.00000000 
     0.21892700 
     0.04874900 
     0.07717200 
     0.05410200 
     0.26333401 
     0.29330000 
     0.21671100 
     0.25960201 
     0.20804900 
     0.19655800 
     0.17841101 
     0.18742700 
     0.14204100 
     0.15528101 
     0.14879701 
     0.21363300 
     0.18365499 
     0.16810100 
     0.18795700 
     0.16130100 
     0.17572600 
     0.17951800 
     0.11415500 
     0.18912700 
     0.15415600 
     0.16242900 
     0.16204099 
     0.22169200 
     0.23843201 
     0.03791800 
     0.04269600 
     0.04445100 
     0.21587899 
     0.23397700 
     0.23611601 
     0.37448901 
     0.30956399 
     0.27192801 
     0.23499900 
     0.23570199 
     0.26156101 
     0.71541899 
     0.91889101 
     0.87095302 
     0.85791099 
     0.82698399 
     0.74298298 
     0.72812903 
     0.00000000 
     0.94351602 
     0.03319200 
     0.03479500 
     0.62045503 
     0.00000000 
     0.75756001 
     0.42214701 
     0.29956400 
     0.25891200 
     0.47292200 
     0.21601801 
     0.31239799 
     0.32298699 
     0.00000000 
     0.04429800 
     0.04343300 
     0.66894603 
     0.32238799 
     0.44474599 
     0.30944800 
     0.26334500 
     0.43660900 
     0.24162699 
     0.47647801 
     0.68454301 
     0.66826200 
     0.94529903 
     0.03611500 
     0.37577000 
     0.83268201 
     0.82626897 
     1.03245997 
     0.96547902 
     0.80778003 
     0.03118700 
     0.12926300 
     0.23795301 
     0.23330800 
     0.00000000 
     0.07163600 
     0.05354900 
     0.05133200 
     0.04751300 
     0.04169500 
     0.03824900 
     0.05914900 
     0.00000000 
     0.12833700 
     0.10982600 
     0.11472400 
     0.06028900 
     0.09421400 
     0.07748100 
     0.06883300 
     0.07509700 
     0.08363400 
     0.10555600 
     0.08406100 
     0.07740200 
     0.12348500 
     0.17103700 
     0.10280700 
     0.04381500 
     0.03354100 
     0.14036199 
     0.09000000 
     0.09445600 
     0.09947600 
     0.07916300 
     0.07726000 
     0.08410200 
     0.11941200 
     0.10827300 
     0.06868200 
     0.06337000 
     0.06896400 
     0.05180700 
     0.05914000 
     0.10167600 
     0.09072200 
     0.08149600 
     0.06928000 
     0.11123800 
     0.00000000 
     0.03596700 
     0.03709500 
     0.10920300 
     0.11216900 
     0.10438000 
     0.10594900 
     0.12437900 
     0.12767801 
     0.12245000 
     0.13973300 
     0.12220500 
     0.11358700 
     0.13461500 
     0.14487199 
     0.12663800 
     0.14414001 
     0.15315200 
     0.13768999 
     0.14763100 
     0.12290100 
     0.14030300 
     0.15293100 
     0.02311700 
     0.01946100 
     0.02324700 
     0.17083301 
     0.15877201 
     0.20636500 
     0.19938700 
     0.21111700 
     0.25090799 
     0.23357099 
     0.15350600 
     0.16376700 
     0.20245200 
     0.18097299 
     0.21805000 
     0.13163200 
     0.09751800 
     0.08101600 
     0.06837600 
     0.13995600 
     0.13258900 
     0.13969900 
     0.21368100 
     0.00000000 
     0.24448200 
     0.21273500 
     0.19721100 
     0.21683300 
     0.20816000 
     0.23987700 
     0.15559401 
     0.20960200 
     0.09493200 
     0.10456000 
     0.05761100 
     0.06566000 
     0.19406600 
     0.19456200 
     0.16780600 
     0.18029700 
     0.14274000 
     0.14667100 
     0.15397400 
     0.15884399 
     0.18191600 
     0.18410701 
     0.15766400 
     0.16776900 
     0.17762400 
     0.16407301 
     0.18447500 
     0.17095201 
     0.21240900 
     0.23860300 
     0.22760101 
     0.22054200 
     0.21603701 
     0.01462400 
     0.01395900 
     0.01064600 
     0.01525700 
     0.20555200 
     0.25701699 
     0.24541000 
     0.32414499 
     0.24752200 
     0.24087401 
     0.30684200 
     0.00000000 
     0.71368498 
     0.74492198 
     0.66572201 
     0.78116602 
     0.67387003 
     0.85261399 
     0.71849102 
     0.65173399 
     0.68281800 
     0.01484500 
     0.01631400 
     0.02100500 
     0.71656197 
     0.00000000 
     0.75861299 
     0.68286902 
     0.29702500 
     0.23525999 
     0.33122301 
     0.48239100 
     0.28303701 
     0.26808000 
     0.40564099 
     0.29156700 
     0.01584200 
     0.00000000 
     0.48312700 
     0.32120201 
     0.48057699 
     0.00000000 
     0.02754200 
     0.01828100 
     0.00000000 
     0.25784200 
     0.32306701 
     0.24753501 
     0.21347700 
     0.23763400 
     0.14831699 
     0.19505100 
     0.18713100 
     0.41479999 
     0.66197401 
     0.61906898 
     0.28575000 
     0.21557100 
     0.18023901 
     0.19260700 
     0.01164400 
     0.01682200 
     0.02122700 
     0.02331300 
     0.17456600 
     0.54121000 
     0.69104201 
     0.57990003 
     0.00000000 
     0.00000000 
     0.27599001 
     0.16919599 
     0.06068100 
     0.04837300 
     0.06672200 
     0.06377000 
     0.16367900 
     0.06743100 
     0.06314400 
     0.00000000 
     0.10794900 
     0.10908200 
     0.10313000 
     0.10096700 
     0.04808400 
     0.08567100 
     0.07726900 
     0.08892100 
     0.07478300 
     0.08695600 
     0.07877800 
     0.07042000 
     0.12018600 
     0.08901000 
     0.02819800 
     0.02436100 
     0.08162800 
     0.07396400 
     0.09427100 
     0.06324300 
     0.13040601 
     0.08301600 
     0.13147900 
     0.15009899 
     0.10319400 
     0.11749300 
     0.10588200 
     0.11776700 
     0.11992300 
     0.03328400 
     0.13785900 
     0.11348500 
     0.13609900 
     0.07854900 
     0.09523000 
     0.10748900 
     0.09260700 
     0.08211400 
     0.10325300 
     0.14456300 
     0.00000000 
     0.15474901 
     0.03034600 
     0.18580900 
     0.14234801 
     0.13404299 
     0.06897700 
     0.01723000 
     0.02702400 
     0.01802200 
     0.18301800 
     0.17888699 
     0.19047099 
     0.19592801 
     0.15074299 
     0.16078199 
     0.15833800 
     0.15246600 
     0.12989099 
     0.14910100 
     0.15259901 
     0.13940200 
     0.14436300 
     0.01705300 
     0.00924800 
     0.15821899 
     0.13126500 
     0.15153700 
     0.14074101 
     0.15080200 
     0.13381900 
     0.15144500 
     0.19835800 
     0.16395600 
     0.18507600 
     0.16617200 
     0.14965899 
     0.14057501 
     0.02354300 
     0.03250300 
     0.13682801 
     0.18092699 
     0.19180700 
     0.19814000 
     0.19732501 
     0.22439800 
     0.27047101 
     0.21562800 
     0.27047601 
     0.24951801 
     0.00000000 
     0.25952601 
     0.18898199 
     0.20315300 
     0.04976500 
     0.04273100 
     0.16885300 
     0.18779600 
     0.15872300 
     0.14682500 
     0.25094801 
     0.22464301 
     0.20547900 
     0.18129700 
     0.19168100 
     0.17432500 
     0.20431000 
     0.19472900 
     0.02888400 
     0.02179100 
     0.01674000 
     0.16111600 
     0.14760999 
     0.16328201 
     0.16697399 
     0.13845301 
     0.17357600 
     0.14582500 