# vtk DataFile Version 3.0
off file: torus.off
ASCII
DATASET UNSTRUCTURED_GRID

POINTS 1800 float
     3.59999990      0.00000000      0.00000000
     3.57815003      0.00000000      0.20791000
     3.51355004      0.00000000      0.40674001
     3.40901995      0.00000000      0.58779001
     3.26912999      0.00000000      0.74313998
     3.09999990      0.00000000      0.86602998
     2.90901995      0.00000000      0.95106000
     2.70453000      0.00000000      0.99452001
     2.49547005      0.00000000      0.99452001
     2.29098010      0.00000000      0.95106000
     2.09999990      0.00000000      0.86602998
     1.93087006      0.00000000      0.74313998
     1.79097998      0.00000000      0.58779001
     1.68645000      0.00000000      0.40674001
     1.62185001      0.00000000      0.20791000
     1.60000002      0.00000000     -0.00000000
     1.62185001      0.00000000     -0.20791000
     1.68645000      0.00000000     -0.40674001
     1.79097998      0.00000000     -0.58779001
     1.93087006      0.00000000     -0.74313998
     2.09999990      0.00000000     -0.86602998
     2.29098010      0.00000000     -0.95106000
     2.49547005      0.00000000     -0.99452001
     2.70453000      0.00000000     -0.99452001
     2.90901995      0.00000000     -0.95106000
     3.09999990      0.00000000     -0.86602998
     3.26912999      0.00000000     -0.74313998
     3.40901995      0.00000000     -0.58778000
     3.51355004      0.00000000     -0.40674001
     3.57815003      0.00000000     -0.20791000
     3.52133012      0.74848002      0.00000000
     3.49995995      0.74394000      0.20791000
     3.43676996      0.73051000      0.40674001
     3.33452010      0.70876998      0.58779001
     3.19769001      0.67969000      0.74313998
     3.03225994      0.64453000      0.86602998
     2.84544992      0.60482001      0.95106000
     2.64543009      0.56230003      0.99452001
     2.44093990      0.51884001      0.99452001
     2.24092007      0.47632000      0.95106000
     2.05411005      0.43661001      0.86602998
     1.88867998      0.40145001      0.74313998
     1.75185001      0.37237000      0.58779001
     1.64960003      0.35062999      0.40674001
     1.58641005      0.33719999      0.20791000
     1.56503999      0.33265999     -0.00000000
     1.58641005      0.33719999     -0.20791000
     1.64960003      0.35062999     -0.40674001
     1.75185001      0.37237000     -0.58779001
     1.88867998      0.40145001     -0.74313998
     2.05411005      0.43661001     -0.86602998
     2.24092007      0.47632000     -0.95106000
     2.44093990      0.51884001     -0.99452001
     2.64543009      0.56230003     -0.99452001
     2.84544992      0.60482001     -0.95106000
     3.03225994      0.64453000     -0.86602998
     3.19769001      0.67969000     -0.74313998
     3.33452010      0.70876998     -0.58778000
     3.43676996      0.73051000     -0.40674001
     3.49995995      0.74394000     -0.20791000
     3.28875995      1.46424997      0.00000000
     3.26880002      1.45536005      0.20791000
     3.20977998      1.42909002      0.40674001
     3.11429000      1.38656998      0.58779001
     2.98650002      1.32967997      0.74313998
     2.83199000      1.26087999      0.86602998
     2.65752006      1.18320000      0.95106000
     2.47071004      1.10002995      0.99452001
     2.27973008      1.01499999      0.99452001
     2.09292006      0.93182999      0.95106000
     1.91845000      0.85415000      0.86602998
     1.76393998      0.78535998      0.74313998
     1.63613999      0.72846001      0.58779001
     1.54065001      0.68594003      0.40674001
     1.48163998      0.65967000      0.20791000
     1.46167004      0.65078002     -0.00000000
     1.48163998      0.65967000     -0.20791000
     1.54065001      0.68594003     -0.40674001
     1.63613999      0.72846001     -0.58779001
     1.76393998      0.78535998     -0.74313998
     1.91845000      0.85415000     -0.86602998
     2.09292006      0.93182999     -0.95106000
     2.27973008      1.01499999     -0.99452001
     2.47071004      1.10002995     -0.99452001
     2.65752006      1.18320000     -0.95106000
     2.83199000      1.26087999     -0.86602998
     2.98650002      1.32967997     -0.74313998
     3.11429000      1.38656998     -0.58778000
     3.20977998      1.42909002     -0.40674001
     3.26880002      1.45536005     -0.20791000
     2.91246009      2.11602998      0.00000000
     2.89477992      2.10317993      0.20791000
     2.84252000      2.06521010      0.40674001
     2.75795007      2.00377011      0.58779001
     2.64477992      1.92155004      0.74313998
     2.50795007      1.82212996      0.86602998
     2.35344005      1.70987999      0.95106000
     2.18800998      1.58967996      0.99452001
     2.01887989      1.46679997      0.99452001
     1.85344005      1.34660995      0.95106000
     1.69894004      1.23434997      0.86602998
     1.56210995      1.13494003      0.74313998
     1.44894004      1.05271006      0.58779001
     1.36436999      0.99127001      0.40674001
     1.31210995      0.95330000      0.20791000
     1.29443002      0.94046003     -0.00000000
     1.31210995      0.95330000     -0.20791000
     1.36436999      0.99127001     -0.40674001
     1.44894004      1.05271006     -0.58779001
     1.56210995      1.13494003     -0.74313998
     1.69894004      1.23434997     -0.86602998
     1.85344005      1.34660995     -0.95106000
     2.01887989      1.46679997     -0.99452001
     2.18800998      1.58967996     -0.99452001
     2.35344005      1.70987999     -0.95106000
     2.50795007      1.82212996     -0.86602998
     2.64477992      1.92155004     -0.74313998
     2.75795007      2.00377011     -0.58778000
     2.84252000      2.06521010     -0.40674001
     2.89477992      2.10317993     -0.20791000
     2.40886998      2.67531991      0.00000000
     2.39424992      2.65908003      0.20791000
     2.35102010      2.61106992      0.40674001
     2.28108001      2.53339005      0.58779001
     2.18747997      2.42944002      0.74313998
     2.07430005      2.30375004      0.86602998
     1.94650996      2.16181993      0.95106000
     1.80967999      2.00986004      0.99452001
     1.66980004      1.85450006      0.99452001
     1.53296995      1.70253003      0.95106000
     1.40516996      1.56060004      0.86602998
     1.29200006      1.43491995      0.74313998
     1.19840002      1.33096004      0.58779001
     1.12846005      1.25328004      0.40674001
     1.08522999      1.20527005      0.20791000
     1.07061005      1.18903005     -0.00000000
     1.08522999      1.20527005     -0.20791000
     1.12846005      1.25328004     -0.40674001
     1.19840002      1.33096004     -0.58779001
     1.29200006      1.43491995     -0.74313998
     1.40516996      1.56060004     -0.86602998
     1.53296995      1.70253003     -0.95106000
     1.66980004      1.85450006     -0.99452001
     1.80967999      2.00986004     -0.99452001
     1.94650996      2.16181993     -0.95106000
     2.07430005      2.30375004     -0.86602998
     2.18747997      2.42944002     -0.74313998
     2.28108001      2.53339005     -0.58778000
     2.35102010      2.61106992     -0.40674001
     2.39424992      2.65908003     -0.20791000
     1.79999995      3.11769009      0.00000000
     1.78907001      3.09876990      0.20791000
     1.75677001      3.04281998      0.40674001
     1.70450997      2.95230007      0.58779001
     1.63457000      2.83115005      0.74313998
     1.54999995      2.68467999      0.86602998
     1.45450997      2.51927996      0.95106000
     1.35225999      2.34219003      0.99452001
     1.24774003      2.16113997      0.99452001
     1.14549005      1.98405004      0.95106000
     1.04999995      1.81865001      0.86602998
     0.96543002      1.67218006      0.74313998
     0.89548999      1.55104005      0.58779001
     0.84323001      1.46051002      0.40674001
     0.81093001      1.40456998      0.20791000
     0.80000001      1.38564003     -0.00000000
     0.81093001      1.40456998     -0.20791000
     0.84323001      1.46051002     -0.40674001
     0.89548999      1.55104005     -0.58779001
     0.96543002      1.67218006     -0.74313998
     1.04999995      1.81865001     -0.86602998
     1.14549005      1.98405004     -0.95106000
     1.24774003      2.16113997     -0.99452001
     1.35225999      2.34219003     -0.99452001
     1.45450997      2.51927996     -0.95106000
     1.54999995      2.68467999     -0.86602998
     1.63457000      2.83115005     -0.74313998
     1.70450997      2.95230007     -0.58778000
     1.75677001      3.04281998     -0.40674001
     1.78907001      3.09876990     -0.20791000
     1.11246002      3.42379999      0.00000000
     1.10571003      3.40301991      0.20791000
     1.08574998      3.34157991      0.40674001
     1.05343997      3.24217010      0.58779001
     1.01022005      3.10912991      0.74313998
     0.95795000      2.94828010      0.86602998
     0.89894003      2.76663995      0.95106000
     0.83574998      2.57216001      0.99452001
     0.77113998      2.37333012      0.99452001
     0.70795000      2.17884994      0.95106000
     0.64894003      1.99722004      0.86602998
     0.59666997      1.83636999      0.74313998
     0.55343997      1.70333004      0.58779001
     0.52113998      1.60390997      0.40674001
     0.50117999      1.54246998      0.20791000
     0.49443001      1.52169001     -0.00000000
     0.50117999      1.54246998     -0.20791000
     0.52113998      1.60390997     -0.40674001
     0.55343997      1.70333004     -0.58779001
     0.59666997      1.83636999     -0.74313998
     0.64894003      1.99722004     -0.86602998
     0.70795000      2.17884994     -0.95106000
     0.77113998      2.37333012     -0.99452001
     0.83574998      2.57216001     -0.99452001
     0.89894003      2.76663995     -0.95106000
     0.95795000      2.94828010     -0.86602998
[...]
POINT_DATA 1800
SCALARS scalars float 1
LOOKUP_TABLE default
    12.96000004 
    12.59523010 
    11.93826008 
    11.03361034 
     9.94406986 
     8.74396992 
     7.51132011 
     6.31995010 
     5.23286009 
     4.29755020 
     3.54397011 
     2.98511004 
     2.61982989 
     2.43739009 
     2.42248988 
     2.55999994 
     2.83832002 
     3.25086999 
     3.79540992 
     4.47139978 
     5.27602005 
     6.19965982 
     7.22189999 
     8.30900002 
     9.41343975 
    10.47601986 
    11.43035984 
    12.20917988 
    12.75174046 
    13.01105022 
    11.83955002 
    11.48834038 
    10.87098026 
    10.02888966 
     9.02011013 
     7.91314983 
     6.77970982 
     5.68758011 
     4.69446993 
     3.84378004 
     3.16270995 
     2.66279006 
     2.34252000 
     2.19149995 
     2.19508004 
     2.33868003 
     2.61090994 
     3.00498009 
     3.51809001 
     4.14907980 
     4.89476013 
     5.74589014 
     6.68350983 
     7.67663002 
     8.68183041 
     9.64519978 
    10.50640011 
    11.20446014 
    11.68445969 
    11.90415955 
     8.67193031 
     8.35906029 
     7.85368013 
     7.18844986 
     6.40799999 
     5.56432009 
     4.71138000 
     3.89982009 
     3.17241001 
     2.56094003 
     2.08484006 
     1.75154996 
     1.55852997 
     1.49635994 
     1.55217004 
     1.71297002 
     1.96800005 
     2.30982995 
     2.73410010 
     3.23783994 
     3.81689000 
     4.46305990 
     5.16144991 
     5.88886023 
     6.61349010 
     7.29637003 
     7.89428997 
     8.36402035 
     8.66716003 
     8.77488041 
     4.00485992 
     3.74848008 
     3.40808010 
     3.00342011 
     2.55939007 
     2.10363007 
     1.66395998 
     1.26576996 
     0.92984003 
     0.67084998 
     0.49674001 
     0.40895000 
     0.40342000 
     0.47215000 
     0.60492998 
     0.79108000 
     1.02075005 
     1.28561997 
     1.57898998 
     1.89523995 
     2.22879004 
     2.57295990 
     2.91889000 
     3.25482011 
     3.56608009 
     3.83568001 
     4.04568005 
     4.17898989 
     4.22154999 
     4.16429996 
    -1.35468996 
    -1.54620004 
    -1.69713998 
    -1.80254996 
    -1.86026001 
    -1.87054002 
    -1.83562005 
    -1.75908995 
    -1.64546001 
    -1.49968004 
    -1.32700002 
    -1.13285005 
    -0.92307001 
    -0.70402998 
    -0.48286000 
    -0.26758999 
    -0.06704000 
     0.10944000 
     0.25250000 
     0.35343999 
     0.40505001 
     0.40243000 
     0.34358001 
     0.22995000 
     0.06650000 
    -0.13849001 
    -0.37397000 
    -0.62698001 
    -0.88366997 
    -1.13038003 
    -6.48000002 
    -6.60947990 
    -6.57923985 
    -6.39847994 
    -6.08675003 
    -5.67103004 
    -5.18225002 
    -4.65176010 
    -4.10821009 
    -3.57536006 
    -3.07102990 
    -2.60727000 
    -2.19160008 
    -1.82879996 
    -1.52311003 
    -1.27999997 
    -1.10729003 
    -1.01532996 
    -1.01602995 
    -1.12098002 
    -1.33896995 
    -1.67323995 
    -2.11916995 
    -2.66271996 
    -3.28012991 
    -3.93897009 
    -4.60046005 
    -5.22291994 
    -5.76576996 
    -6.19365978 
   -10.48486042 
   -10.56587029 
   -10.39404964 
    -9.98968983 
    -9.38928032 
    -8.64068031 
    -7.79726982 
    -6.91205978 
    -6.03257990 
    -5.19726992 
    -4.43379021 
    -3.75937009 
    -3.18280005 
    -2.70767999 
    -2.33594990 
    -2.07107997 
    -1.92013001 
    -1.89420998 
    -2.00723004 
    -2.27308011 
    -2.70174003 
    -3.29515004 
    -4.04352999 
    -4.92300987 
    -5.89515018 
    -6.90862989 
    -7.90298986 
    -8.81412029 
    -9.58057976 
   -10.15005016 
   -12.67679024 
   -12.73126984 
   -12.48196983 
   -11.95522976 
   -11.19682026 
   -10.26601982 
    -9.22850990 
    -8.14916039 
    -7.08582020 
    -6.08495998 
    -5.17965984 
    -4.38992977 
    -3.72531009 
    -3.18870997 
    -2.78083992 
    -2.50406003 
    -2.36501002 
    -2.37524009 
    -2.54974008 
    -2.90364003 
    -3.44760990 
    -4.18284988 
    -5.09676981 
    -6.16011000 
    -7.32639980 
    -8.53396988 
    -9.71053028 
   -10.77966022 
   -11.66849995 
   -12.31544971 
   -12.67679024 
   -12.73126984 
   -12.48196983 
   -11.95522976 
   -11.19682026 
   -10.26601982 
    -9.22850990 
    -8.14916039 
    -7.08582020 
    -6.08495998 
    -5.17965984 
    -4.38992977 
    -3.72531009 
    -3.18870997 
    -2.78083992 
    -2.50406003 
    -2.36501002 
    -2.37524009 
    -2.54974008 
    -2.90364003 
    -3.44760990 
    -4.18284988 
    -5.09676981 
    -6.16011000 
    -7.32639980 
    -8.53396988 
    -9.71053028 
   -10.77966022 
   -11.66849995 
   -12.31544971 
   -10.48486042 
   -10.56587029 
   -10.39404964 
    -9.98968983 
    -9.38928032 
    -8.64068031 
    -7.79726982 
    -6.91205978 
    -6.03257990 
    -5.19726992 
    -4.43379021 
    -3.75937009 
    -3.18280005 
    -2.70767999 
    -2.33594990 
    -2.07107997 
    -1.92013001 
    -1.89420998 
    -2.00723004 
    -2.27308011 
    -2.70174003 
    -3.29515004 
    -4.04352999 
    -4.92300987 
    -5.89515018 
    -6.90862989 
    -7.90298986 
    -8.81412029 
    -9.58057976 
   -10.15003967 
    -6.48000002 
    -6.60947990 
    -6.57923985 
    -6.39847994 
    -6.08675003 
    -5.67102003 
    -5.18224001 
    -4.65176010 
    -4.10821009 
    -3.57536006 
    -3.07101989 
    -2.60727000 
    -2.19159007 
    -1.82879996 
    -1.52311003 
    -1.27999997 
    -1.10729003 
    -1.01532996 
    -1.01602006 
    -1.12098002 
    -1.33896995 
    -1.67323995 
    -2.11916995 
    -2.66271996 
    -3.28012991 
    -3.93897009 
    -4.60046005 
    -5.22290993 
    -5.76575994 
    -6.19365978 
    -1.35468996 
    -1.54620004 
    -1.69713998 
    -1.80254996 
    -1.86026001 
    -1.87054002 
    -1.83561003 
    -1.75908995 
    -1.64546001 
    -1.49968004 
    -1.32700002 
    -1.13285005 
    -0.92307001 
    -0.70402998 
    -0.48286000 
    -0.26758999 
    -0.06704000 
     0.10944000 
     0.25250000 
     0.35343999 
     0.40505999 
     0.40243000 
     0.34358001 
     0.22995000 
     0.06650000 
    -0.13849001 
    -0.37397000 
    -0.62698001 
    -0.88366997 
    -1.13038003 
     4.00485992 
     3.74848008 
     3.40808010 
     3.00342989 
     2.55939007 
     2.10363007 
     1.66395998 
     1.26577997 
     0.92984003 
     0.67084998 
     0.49674001 
     0.40895000 
     0.40342000 
     0.47215000 
     0.60492998 
     0.79108000 
     1.02075005 
     1.28561997 
     1.57898998 
     1.89523995 
     2.22879004 
     2.57295990 
     2.91889000 
     3.25482011 
     3.56608009 
     3.83568001 
     4.04568005 
     4.17899990 
     4.22154999 
     4.16429996 
     8.67193031 
     8.35906029 
     7.85368013 
     7.18844986 
     6.40799999 
     5.56432009 
     4.71138000 
     3.89982009 
     3.17241001 
     2.56094003 
     2.08484006 
     1.75154996 
     1.55852997 
     1.49635994 
     1.55217004 
     1.71297002 
     1.96800005 
     2.30982995 
     2.73410010 
     3.23783994 
     3.81689000 
     4.46305990 
     5.16144991 
     5.88886023 
     6.61349010 
     7.29637003 
     7.89428997 
     8.36402035 
     8.66716003 
     8.77488995 
    11.83955002 
    11.48834038 
    10.87098026 
    10.02888966 
     9.02011013 
     7.91314983 
     6.77970982 
     5.68758011 
     4.69446993 
     3.84378004 
     3.16270995 
     2.66279006 
     2.34252000 
     2.19149995 
     2.19508004 
     2.33868003 
     2.61090994 
     3.00498009 
     3.51809001 
     4.14907980 
     4.89476013 
     5.74589014 
     6.68351984 
     7.67663002 
     8.68183041 
     9.64519978 
    10.50640011 
    11.20446014 
    11.68445969 
    11.90415955 
    12.96000004 
    12.59523010 
    11.93826008 
    11.03361034 
     9.94406986 
     8.74396992 
     7.51132011 
     6.31995010 
     5.23286009 
     4.29755020 
     3.54397011 
     2.98511004 
     2.61982989 
     2.43739009 
     2.42248988 
     2.55999994 
     2.83832002 
     3.25086999 
     3.79540992 
     4.47139978 
     5.27602005 
     6.19965982 
     7.22189999 
     8.30900002 
     9.41343975 
    10.47601986 
    11.43035984 
    12.20917988 
    12.75174046 
    13.01105022 
    11.83955002 
    11.48834038 
    10.87098026 
    10.02888966 
     9.02011013 
     7.91313982 
     6.77970982 
     5.68758011 
     4.69446993 
     3.84378004 
     3.16270995 
     2.66279006 
     2.34252000 
     2.19149995 
     2.19508004 
     2.33868003 
     2.61090994 
     3.00498009 
     3.51809001 
     4.14907980 
     4.89476013 
     5.74589014 
     6.68350983 
     7.67663002 
     8.68181992 
     9.64519978 
    10.50640011 
    11.20446014 
    11.68445015 
    11.90415955 
     8.67193031 
     8.35906029 
     7.85368013 
     7.18843985 
     6.40799999 
     5.56432009 
     4.71138000 
     3.89982009 
     3.17241001 
     2.56094003 
     2.08484006 
     1.75153995 
     1.55852997 
     1.49635994 
     1.55217004 
     1.71297002 
     1.96800005 
     2.30982995 
     2.73410010 
     3.23782992 
     3.81689000 
     4.46305990 
     5.16144991 
     5.88886023 
     6.61349010 
     7.29637003 
     7.89428997 
     8.36402035 
     8.66714954 
     8.77488041 
     4.00485992 
     3.74847007 
     3.40808010 
     3.00342011 
     2.55938005 
     2.10363007 
     1.66395998 
     1.26576996 
     0.92984003 
     0.67084998 
     0.49674001 
     0.40895000 
     0.40342000 
     0.47215000 
     0.60492998 
     0.79108000 
     1.02075005 
     1.28561997 
     1.57898998 
     1.89523995 
     2.22879004 
     2.57295990 
     2.91889000 
     3.25482011 
     3.56607008 
     3.83568001 
     4.04567003 
     4.17898989 
     4.22154999 
     4.16429996 
    -1.35468996 
    -1.54621005 
    -1.69713998 
    -1.80255997 
    -1.86027002 
    -1.87055004 
    -1.83562005 
    -1.75908995 
    -1.64546001 
    -1.49969006 
    -1.32700002 
    -1.13285005 
    -0.92307001 
    -0.70402998 
    -0.48286000 
    -0.26758999 
    -0.06704000 
     0.10944000 
     0.25250000 
     0.35343000 
     0.40505001 
     0.40243000 
     0.34358001 
     0.22995000 
     0.06650000 
    -0.13849001 
    -0.37397000 
    -0.62698001 
    -0.88366997 
    -1.13038003 
    -6.48000002 
    -6.60947990 
    -6.57923985 
    -6.39848995 
    -6.08675003 
    -5.67103004 
    -5.18225002 
    -4.65176010 
    -4.10821009 
    -3.57536006 
    -3.07102990 
    -2.60727000 
    -2.19160008 
    -1.82879996 
    -1.52311003 
    -1.27999997 
    -1.10729003 
    -1.01532996 
    -1.01602995 
    -1.12098002 
    -1.33897996 
    -1.67324996 
    -2.11916995 
    -2.66271996 
    -3.28013992 
    -3.93898010 
    -4.60046005 
    -5.22291994 
    -5.76576996 
    -6.19365978 
   -10.48486042 
   -10.56587029 
   -10.39404964 
    -9.98968983 
    -9.38928032 
    -8.64068031 
    -7.79725981 
    -6.91204977 
    -6.03257990 
    -5.19725990 
    -4.43379021 
    -3.75937009 
    -3.18280005 
    -2.70767999 
    -2.33594990 
    -2.07107997 
    -1.92013001 
    -1.89420998 
    -2.00723004 
    -2.27308011 
    -2.70174003 
    -3.29515004 
    -4.04352999 
    -4.92300987 
    -5.89515018 
    -6.90862989 
    -7.90298986 
    -8.81412029 
    -9.58057976 
   -10.15003967 
   -12.67679024 
   -12.73126984 
   -12.48196983 
   -11.95522976 
   -11.19682026 
   -10.26601982 
    -9.22850990 
    -8.14916039 
    -7.08582020 
    -6.08495998 
    -5.17965984 
    -4.38992977 
    -3.72531009 
    -3.18870997 
    -2.78083992 
    -2.50406003 
    -2.36501002 
    -2.37524009 
    -2.54974008 
    -2.90364003 
    -3.44760990 
    -4.18284988 
    -5.09676981 
    -6.16011000 
    -7.32639980 
    -8.53396988 
    -9.71053028 
   -10.77966022 
   -11.66849995 
   -12.31544971 
   -12.67679024 
   -12.73126984 
   -12.48196983 
   -11.95522022 
   -11.19682026 
   -10.26601982 
    -9.22850990 
    -8.14916039 
    -7.08581018 
    -6.08495998 
    -5.17965984 
    -4.38992977 
    -3.72531009 
    -3.18870997 
    -2.78083992 
    -2.50406003 
    -2.36501002 
    -2.37524009 
    -2.54974008 
    -2.90364003 
    -3.44760990 
    -4.18284988 
    -5.09676981 
    -6.16011000 
    -7.32639980 
    -8.53396988 
    -9.71053028 
   -10.77966022 
   -11.66849995 
   -12.31544971 
   -10.48486042 
   -10.56587029 
   -10.39404964 
    -9.98968983 
    -9.38928032 
    -8.64068031 
    -7.79725981 
    -6.91204977 
    -6.03256989 
    -5.19725990 
    -4.43379021 
    -3.75937009 
    -3.18280005 
    -2.70767999 
    -2.33594990 
    -2.07107997 
    -1.92013001 
    -1.89420998 
    -2.00723004 
    -2.27308011 
    -2.70174003 
    -3.29515004 
    -4.04352999 
    -4.92300987 
    -5.89515018 
    -6.90862989 
    -7.90298986 
    -8.81412029 
    -9.58057976 
   -10.15003967 
    -6.48000002 
    -6.60947990 
    -6.57923985 
    -6.39847994 
    -6.08675003 
    -5.67103004 
    -5.18225002 
    -4.65176010 
    -4.10821009 
    -3.57536006 
    -3.07102990 
    -2.60727000 
    -2.19160008 
    -1.82879996 
    -1.52311003 
    -1.27999997 
    -1.10729003 
    -1.01532996 
    -1.01602995 
    -1.12098002 
    -1.33897996 
    -1.67324996 
    -2.11916995 
    -2.66271996 
    -3.28012991 
    -3.93898010 
    -4.60046005 
    -5.22291994 
    -5.76576996 
    -6.19365978 
    -1.35467994 
    -1.54620004 
    -1.69713998 
    -1.80254996 
    -1.86026001 
    -1.87054002 
    -1.83561003 
    -1.75908995 
    -1.64546001 
    -1.49968004 
    -1.32699001 
    -1.13285005 
    -0.92307001 
    -0.70402998 
    -0.48286000 
    -0.26758999 
    -0.06704000 
     0.10945000 
     0.25250000 
     0.35343999 
     0.40505999 
     0.40243000 
     0.34358999 
     0.22995000 
     0.06650000 
    -0.13849001 
    -0.37397000 
    -0.62698001 
    -0.88366002 
    -1.13038003 
     4.00486994 
     3.74849010 
     3.40809011 
     3.00342989 
     2.55939007 
     2.10364008 
     1.66396999 
     1.26577997 
     0.92984998 
     0.67084998 
     0.49674001 
     0.40895000 
     0.40343001 
     0.47215000 
     0.60492998 
     0.79109001 
     1.02075005 
     1.28561997 
     1.57900000 
     1.89523995 
     2.22879004 
     2.57296991 
     2.91889000 
     3.25482988 
     3.56608009 
     3.83569002 
     4.04568005 
     4.17899990 
     4.22156000 
     4.16430998 
     8.67193985 
     8.35906982 
     7.85368013 
     7.18844986 
     6.40799999 
     5.56432009 
     4.71138000 
     3.89982009 
     3.17241001 
     2.56095004 
     2.08484006 
     1.75154996 
     1.55852997 
     1.49635994 
     1.55217004 
     1.71297002 
     1.96800005 
     2.30982995 
     2.73410010 
     3.23783994 
     3.81689000 
     4.46305990 
     5.16144991 
     5.88886023 
     6.61350012 
     7.29637003 
     7.89428997 
     8.36402035 
     8.66716003 
     8.77488995 
    11.83955002 
    11.48834038 
    10.87098026 
    10.02888966 
     9.02011013 
     7.91313982 
     6.77970982 
     5.68758011 
     4.69446993 
     3.84378004 
     3.16270995 
     2.66279006 
     2.34252000 
     2.19149995 
     2.19508004 
     2.33868003 
     2.61090994 
     3.00498009 
     3.51809001 
     4.14907980 
     4.89476013 
     5.74589014 
     6.68350983 
     7.67663002 
     8.68181992 
     9.64519978 
    10.50640011 
    11.20446014 
    11.68445015 
    11.90415955 
    -3.31470990 
    -8.26356983 
     3.17624998 
    -4.28663015 
    -7.49618006 
     7.02533007 
    -1.16315997 
     5.32989979 
    -1.23791003 
    -1.58959997 
     6.20796013 
    -1.13066006 
    -2.42166996 
    -0.41341999 
     6.19306993 
     4.69168997 
     0.96331000 
    -0.76865000 
     5.13873005 
    -4.43365002 
     5.80526018 
     2.31398010 
    -5.91374016 
    -4.78973007 
     5.27817011 
     6.54617023 
    -5.70777988 
     1.53206003 
     4.71565008 
     5.97303009 
    -9.41613007 
     2.96169996 
    -8.03555965 
    -0.20144001 
     7.62476015 
     6.26393986 
     4.89018011 
     4.13060999 
    -6.32817984 
    -1.38063002 
    -4.72152996 
     3.55267000 
    -3.40791988 
    -4.81941986 
    -1.63346004 
     4.54036999 
    -1.78746998 
     3.62774992 
     1.73576999 
    -3.22984004 
     6.41950989 
     5.33599997 
    -1.39424002 
    -1.16561997 
     0.60777003 
    -6.31156015 
     5.71499014 
    -5.12070990 
     5.99249983 
    -4.83033991 
     1.92103004 
     8.73882961 
     8.80537987 
    -5.26964998 
    -7.55354977 
    -6.10561991 
     3.27484012 
    -2.71275997 
    -0.43362999 
    -3.26769996 
     2.89580989 
     4.45341015 
    -3.82939005 
    -4.38255978 
    -1.84811997 
    -0.89063001 
     2.49142003 
     6.38044977 
     4.10483980 
     5.09042978 
     3.84282994 
     5.34532022 
     6.80619001 
     1.33176994 
     6.82660007 
    -0.35264999 
     8.79269028 
     2.77537990 
    -3.48071003 
     4.22658014 
    -1.64243996 
     4.26615000 
    -4.96211004 
     7.59906006 
    -7.04060984 
     4.13159990 
    -7.57104015 
     5.91427994 
    -3.72229004 
    -0.52787000 
     5.31200981 
     1.43414998 
    -3.03676009 
    -2.48868990 
     1.13696003 
    -1.87293005 
    -0.32444000 
    -4.84003019 
    -3.37913990 
     3.63612008 
    -5.33555984 
     6.40993977 
    -5.87520981 
    -6.23437023 
     7.06603003 
     5.82497978 
    -3.56660008 
     4.60289001 
    -2.92312002 
    -3.66686010 
    -4.78474998 
     7.33221006 
    -6.43583012 
     0.26126000 
     3.51736999 
    -4.66898012 
    -2.45953989 
     1.06339002 
    -6.63968992 
    -6.64708996 
     2.92142010 
    -2.28340006 
     6.01215982 
    -4.97305012 
    -4.54230022 
     1.00435996 
     3.10541010 
    -2.97972012 
    -5.76177979 
    -3.40135002 
     6.62690020 
    -3.50117993 
    -4.52066994 
     6.54289007 
    -6.87321997 
     0.66907001 
     1.19305003 
     6.92905998 
    -1.14551997 
    -6.96154022 
    -7.72026014 
     3.77432990 
     8.07845974 
    -3.43773007 
    -1.18109000 
     6.73075008 
     6.84852982 
    -4.79681015 
    -6.52568007 
     1.49619997 
    -2.92843008 
    -4.03708982 
     6.47059011 
    -1.05543005 
    -2.80837011 
     2.14012003 
    -2.14836001 
     6.04862022 
     1.50314999 
     1.36688995 
    -2.12624002 
     1.64444995 
    -0.81075001 
    -3.48984003 
     5.04768991 
     3.65135002 
    -3.07058001 
     7.05271006 
     0.96684003 
     7.14041996 
     5.93204021 
    -4.22559977 
    -7.60364008 
    -8.08452988 
     7.10247993 
     1.88178003 
     2.93800998 
    -6.75622988 
    -5.79750013 
    -1.07774997 
     4.85035992 
     5.24092007 
    -5.25249004 
    -0.82384998 
     1.78971004 
    -4.10586977 
    -4.72273016 
     5.30278015 
     4.72737980 
    -4.32398987 
     0.70003998 
     3.74097991 
     2.62889004 
    -4.99438000 
     6.68144989 
     1.65059996 
     0.81919003 
    -8.19312954 
     4.47390985 
     4.15507984 
     7.16595984 
    -4.31394005 
    -2.17733002 
    -3.47399998 
    -2.85231996 
    -8.11221027 
    -0.48783001 
    -5.18841982 
    -5.54160976 
     0.86691999 
    -5.69379997 
    -5.08371019 
    -4.11569023 
    -5.78653002 
     5.82101011 
     5.15802002 
     0.42103001 
    -3.77976990 
    -5.22461987 
     4.50122976 
    -3.63594007 
    -5.01431990 
    -1.75077999 
     6.81978989 
     0.90495998 
     7.26802015 
    -1.02968001 
    -6.36639977 
    -2.34008002 
     6.08225012 
    -5.99446011 
    -6.77705002 
     6.77172995 
    -5.70407009 
    -3.42248988 
    -4.82489014 
    -4.21508980 
    -2.53958011 
     0.74949002 
    -2.73938990 
    -3.52450991 
     2.23411989 
     1.09334004 
    -0.53255999 
    -4.64927006 
    -4.46320009 
     3.76451993 
     5.61000013 
     3.97392988 
    -3.77097011 
    -1.74538004 
     4.65557003 
     0.23568000 
    -0.73587000 
    -6.66065979 
    -7.20935011 
     6.63852978 
    -7.06432009 
    -0.07446000 
     3.87821007 
     2.95438004 
     6.30499983 